<?xml version="1.0"?>
<VTKFile type="UnstructuredGrid"  version="0.1"  >
<UnstructuredGrid>
<Piece  NumberOfPoints="1803" NumberOfCells="5229">
<Points>
<DataArray  type="Float64"  NumberOfComponents="3"  format="ascii">-0.5 -0.5 0  0.5 -0.5 0  1.7 -0.5 0  1.7 -0.3 0  0.5 -0.3 0  0.5 0.3 0  1.7 0.3 0  1.7 0.5 0  0.5 0.5 0  -0.5 0.5 0  -3 -2.5 0  8.25 -2.5 0  8.25 2.5 0  -3 2.5 0  -11.25 -11.25 0  11.25 -11.25 0  11.25 11.25 0  -11.25 11.25 0  -0.4000000000002774 -0.5 0  -0.3000000000005548 -0.5 0  -0.2000000000008322 -0.5 0  -0.1000000000011096 -0.5 0  -1.376121439022882e-12 -0.5 0  0.09999999999889042 -0.5 0  0.1999999999991677 -0.5 0  0.2999999999994452 -0.5 0  0.3999999999997227 -0.5 0  0.5999999999998701 -0.5 0  0.6999999999996533 -0.5 0  0.7999999999993499 -0.5 0  0.8999999999990465 -0.5 0  0.9999999999987862 -0.5 0  1.099999999998483 -0.5 0  1.199999999998714 -0.5 0  1.299999999998989 -0.5 0  1.399999999999264 -0.5 0  1.499999999999509 -0.5 0  1.599999999999755 -0.5 0  1.7 -0.4000000000002712 0  1.600000000000058 -0.3 0  1.50000000000039 -0.3 0  1.400000000000823 -0.3 0  1.300000000001257 -0.3 0  1.200000000001546 -0.3 0  1.100000000001734 -0.3 0  1.00000000000143 -0.3 0  0.9000000000011331 -0.3 0  0.8000000000008445 -0.3 0  0.7000000000005704 -0.3 0  0.600000000000289 -0.3 0  0.5 -0.2000000000002311 0  0.5 -0.1000000000005164 0  0.5 -7.803202528577913e-13 0  0.5 0.09999999999948395 0  0.5 0.1999999999997399 0  0.5999999999998701 0.3 0  0.6999999999996533 0.3 0  0.7999999999993499 0.3 0  0.8999999999990465 0.3 0  0.9999999999987862 0.3 0  1.099999999998483 0.3 0  1.199999999998714 0.3 0  1.299999999998989 0.3 0  1.399999999999264 0.3 0  1.499999999999509 0.3 0  1.599999999999755 0.3 0  1.7 0.3999999999997288 0  1.600000000000058 0.5 0  1.50000000000039 0.5 0  1.400000000000823 0.5 0  1.300000000001257 0.5 0  1.200000000001546 0.5 0  1.100000000001734 0.5 0  1.00000000000143 0.5 0  0.9000000000011331 0.5 0  0.8000000000008445 0.5 0  0.7000000000005704 0.5 0  0.600000000000289 0.5 0  0.4000000000002774 0.5 0  0.3000000000005548 0.5 0  0.2000000000008322 0.5 0  0.1000000000011096 0.5 0  1.376121439022882e-12 0.5 0  -0.09999999999889042 0.5 0  -0.1999999999991677 0.5 0  -0.2999999999994452 0.5 0  -0.3999999999997227 0.5 0  -0.5 0.4000000000002774 0  -0.5 0.3000000000005548 0  -0.5 0.2000000000008322 0  -0.5 0.1000000000011096 0  -0.5 1.376121439022882e-12 0  -0.5 -0.09999999999889042 0  -0.5 -0.1999999999991677 0  -0.5 -0.2999999999994452 0  -0.5 -0.3999999999997227 0  -2.510869565218254 -2.5 0  -2.021739130436498 -2.5 0  -1.532608695653997 -2.5 0  -1.043478260872238 -2.5 0  -0.5543478260904924 -2.5 0  -0.06521739130874682 -2.5 0  0.4239130434729983 -2.5 0  0.9130434782547439 -2.5 0  1.402173913036489 -2.5 0  1.891304347818235 -2.5 0  2.38043478259998 -2.5 0  2.869565217383656 -2.5 0  3.358695652169262 -2.5 0  3.847826086954867 -2.5 0  4.336956521740473 -2.5 0  4.826086956526079 -2.5 0  5.315217391309528 -2.5 0  5.804347826091274 -2.5 0  6.29347826087302 -2.5 0  6.782608695654766 -2.5 0  7.27173913043651 -2.5 0  7.760869565218254 -2.5 0  8.25 -1.999999999999383 0  8.25 -1.500000000000432 0  8.25 -1.000000000002035 0  8.25 -0.5000000000036202 0  8.25 -3.072653242952583e-12 0  8.25 0.4999999999975433 0  8.25 0.9999999999981606 0  8.25 1.499999999998777 0  8.25 1.999999999999388 0  7.76086956521822 2.5 0  7.271739130436441 2.5 0  6.782608695654663 2.5 0  6.293478260872883 2.5 0  5.804347826091103 2.5 0  5.315217391309324 2.5 0  4.826086956527544 2.5 0  4.336956521745766 2.5 0  3.847826086963986 2.5 0  3.358695652182207 2.5 0  2.869565217400427 2.5 0  2.380434782616716 2.5 0  1.891304347831078 2.5 0  1.402173913045438 2.5 0  0.913043478259798 2.5 0  0.4239130434741583 2.5 0  -0.06521739130932325 2.5 0  -0.554347826091103 2.5 0  -1.043478260872883 2.5 0  -1.532608695654663 2.5 0  -2.02173913043644 2.5 0  -2.51086956521822 2.5 0  -3 1.999999999999383 0  -3 1.500000000000432 0  -3 1.000000000002035 0  -3 0.5000000000036202 0  -3 3.072653242952583e-12 0  -3 -0.4999999999975433 0  -3 -0.9999999999981606 0  -3 -1.499999999998777 0  -3 -1.999999999999388 0  -10.27173913043644 -11.25 0  -9.293478260872883 -11.25 0  -8.315217391309325 -11.25 0  -7.336956521745766 -11.25 0  -6.358695652182207 -11.25 0  -5.380434782618648 -11.25 0  -4.402173913055089 -11.25 0  -3.42391304349153 -11.25 0  -2.445652173927972 -11.25 0  -1.467391304364414 -11.25 0  -0.4891304348008543 -11.25 0  0.489130434766567 -11.25 0  1.467391304337845 -11.25 0  2.445652173909124 -11.25 0  3.423913043480404 -11.25 0  4.402173913051683 -11.25 0  5.380434782618646 -11.25 0  6.358695652182206 -11.25 0  7.336956521745766 -11.25 0  8.315217391309325 -11.25 0  9.293478260872881 -11.25 0  10.27173913043644 -11.25 0  11.25 -10.27173913043644 0  11.25 -9.293478260872883 0  11.25 -8.315217391309325 0  11.25 -7.336956521745766 0  11.25 -6.358695652182207 0  11.25 -5.380434782618648 0  11.25 -4.402173913055089 0  11.25 -3.42391304349153 0  11.25 -2.445652173927972 0  11.25 -1.467391304364414 0  11.25 -0.4891304348008543 0  11.25 0.489130434766567 0  11.25 1.467391304337845 0  11.25 2.445652173909124 0  11.25 3.423913043480404 0  11.25 4.402173913051683 0  11.25 5.380434782618646 0  11.25 6.358695652182206 0  11.25 7.336956521745766 0  11.25 8.315217391309325 0  11.25 9.293478260872881 0  11.25 10.27173913043644 0  10.27173913043644 11.25 0  9.293478260872883 11.25 0  8.315217391309325 11.25 0  7.336956521745766 11.25 0  6.358695652182207 11.25 0  5.380434782618648 11.25 0  4.402173913055089 11.25 0  3.42391304349153 11.25 0  2.445652173927972 11.25 0  1.467391304364414 11.25 0  0.4891304348008543 11.25 0  -0.489130434766567 11.25 0  -1.467391304337845 11.25 0  -2.445652173909124 11.25 0  -3.423913043480404 11.25 0  -4.402173913051683 11.25 0  -5.380434782618646 11.25 0  -6.358695652182206 11.25 0  -7.336956521745766 11.25 0  -8.315217391309325 11.25 0  -9.293478260872881 11.25 0  -10.27173913043644 11.25 0  -11.25 10.27173913043644 0  -11.25 9.293478260872883 0  -11.25 8.315217391309325 0  -11.25 7.336956521745766 0  -11.25 6.358695652182207 0  -11.25 5.380434782618648 0  -11.25 4.402173913055089 0  -11.25 3.42391304349153 0  -11.25 2.445652173927972 0  -11.25 1.467391304364414 0  -11.25 0.4891304348008543 0  -11.25 -0.489130434766567 0  -11.25 -1.467391304337845 0  -11.25 -2.445652173909124 0  -11.25 -3.423913043480404 0  -11.25 -4.402173913051683 0  -11.25 -5.380434782618646 0  -11.25 -6.358695652182206 0  -11.25 -7.336956521745766 0  -11.25 -8.315217391309325 0  -11.25 -9.293478260872881 0  -11.25 -10.27173913043644 0  1.791013415711228 0.3526356301978814 0  1.791246361222117 -0.3349034144309171 0  4.099662679355935 2.132283396247942 0  -0.5891470651002521 0.2500000000006934 0  -0.588724241097039 -0.1499999999989841 0  5.533901024524375 -2.037282544583928 0  3.631002095534417 -2.092990524045568 0  5.534975734560096 2.109990041001783 0  1.149999999998602 -0.5864726307716677 0  1.549999999999632 -0.5866025403786563 0  0.7499999999994948 -0.5884166643265065 0  0.3477946465018811 -0.5924789267940552 0  -0.05550136065045896 -0.5737293825760915 0  -0.3511264092882841 -0.5941677633832534 0  1.150000000001614 0.5892099584850748 0  0.7470019714644243 0.5941395394030903 0  0.352084982345567 0.5949318450997105 0  -0.04182120341412236 0.5924514853175455 0  1.550000000000245 0.5892099584849604 0  -0.3581680700437209 0.5944401878737282 0  7.844910180016403 0.3079377568950312 0  -2.610073982433672 -0.8183437154101272 0  -2.575442611177634 0.6784369040048682 0  2.578099731638174 2.086529247270455 0  2.644051830799411 -2.057618009247273 0  -1.28446232204666 2.112620595185499 0  -1.300252338676193 -2.133812210412194 0  1.649338748444852 -0.2122224947985977 0  1.345893090216117 -0.2147953307227983 0  0.854752187447158 0.2124999503270951 0  1.159591901283471 0.2145580921724248 0  0.9454047083070836 -0.2157577859877015 0  1.55371262355151 0.2227135527221794 0  0.1558612820964271 -2.077834597897674 0  0.1793478260824175 2.076400617714114 0  1.633153670803605 -2.082804759744005 0  1.646739130438258 2.076400617711509 0  7.824260446139524 -0.7615038592789409 0  4.492724467899951 -2.143283852047199 0  6.538043478263774 2.078635256669889 0  6.5252816325693 -2.060263368005274 0  1.145510840966886 -0.2170216562224906 0  1.359986757557443 0.2177506491535614 0  0.7483205519342589 -0.2169960874614549 0  -0.60016415189009 -0.3584973473611786 0  -0.5906563588442314 0.05249292259026662 0  0.5499999999999071 -0.5852612323945601 0  0.147503092545248 -0.5987984285079277 0  1.349999999999123 -0.5871602152900951 0  0.9499999999989159 -0.589209958485002 0  0.548508487738655 0.6013160268215823 0  0.9532643166928556 0.5924981839949122 0  0.1400949488165402 0.6018769322220201 0  1.350000000001028 0.5860399741537564 0  0.5866025403784404 0.04999999999935181 0  7.876588434038469 1.223700958302594 0  1.757779384423815 -0.2273536531418816 0  1.876106833577564 -0.2415988331033652 0  1.916293807944532 -0.3745819216345935 0  2.007468723898727 -0.258094009415864 0  2.057499174063004 -0.4140778694533065 0  2.166427804688848 -0.2694234708923027 0  2.2282600671758 -0.4600868869903916 0  2.35990211015918 -0.2881867342110658 0  2.434294263300761 -0.5133136122145641 0  2.5758271606215 -0.3322092317344275 0  2.493312254760637 -0.09343912747690833 0  2.745573240940806 -0.1308282349938257 0  2.639963819159051 0.1138332210724379 0  2.92191327685243 0.08820052745397369 0  3.031176089198368 -0.1856188587859578 0  3.232793350011556 0.05683018430597347 0  3.341329985946736 -0.2422160688590144 0  3.561235399733255 0.01423868143736571 0  2.086458372050251 -0.5837087255766715 0  3.095438816815122 0.3407474315776491 0  3.684501205872324 -0.3074440705710376 0  3.921389001545733 -0.03164401660438994 0  1.791226849377128 0.2453517296381823 0  4.062109491289731 -0.3832465186870878 0  4.314795900256392 -0.07988803825686716 0  4.457653874439428 -0.4601229716219354 0  4.724174575682635 -0.1622218152250764 0  4.564707607693852 0.25883682562
[...]
<CellData  Scalars="f">
<DataArray  type="Float64"  Name="f"  format="ascii">4 4 0 0 0 0 4 5 0 0 5 5 0 0 0 5 5 0 0 0 5 4 0 4 5 0 5 5 0 0 0 0 5 5 0 0 0 5 4 0 0 4 4 0 0 0 0 0 0 0 0 0 0 0 0 0 0 0 0 0 0 0 0 0 0 0 0 0 0 0 0 2 1 0 2 3 0 3 2 0 2 1 0 4 0 0 4 0 0 4 0 0 4 0 0 4 0 0 4 0 0 4 0 0 4 0 0 0 0 5 0 0 5 0 0 5 0 0 5 0 0 5 0 0 5 0 0 5 0 0 5 0 0 5 0 0 5 0 0 0 0 0 0 5 0 0 5 0 0 5 0 0 5 0 0 5 0 0 5 0 0 5 0 0 5 0 0 5 0 0 5 0 0 0 0 4 0 0 4 0 0 4 0 0 4 0 0 0 0 5 0 0 5 0 0 5 0 0 5 0 0 5 0 0 5 0 0 5 0 0 5 0 0 5 0 0 5 0 0 0 0 0 0 5 0 0 5 0 0 5 0 0 5 0 0 5 0 0 5 0 0 5 0 0 5 0 0 5 0 0 5 0 0 0 0 4 0 0 4 0 0 4 0 0 4 0 0 4 0 0 4 0 0 4 0 0 4 0 0 0 0 4 0 0 4 0 0 4 0 0 4 0 0 4 0 0 4 0 0 4 0 0 4 0 0 0 0 0 0 0 0 0 0 0 0 0 0 0 0 0 0 0 0 0 0 0 0 0 0 0 0 0 0 0 0 0 0 0 0 0 0 0 0 0 0 0 0 0 0 0 0 0 0 0 0 0 0 0 0 0 0 0 0 0 0 0 0 0 0 0 0 0 0 0 0 0 0 0 0 0 0 0 0 0 0 0 0 0 0 0 0 0 0 0 0 0 0 0 0 0 0 0 0 0 0 0 0 0 0 0 0 0 0 0 0 0 0 0 0 0 0 0 0 0 0 0 0 0 0 0 0 0 0 0 0 0 0 0 0 0 0 0 0 0 0 0 0 0 0 0 0 0 0 0 0 0 0 0 0 0 0 0 0 0 0 0 0 0 0 0 0 0 0 0 0 0 0 0 0 0 0 0 0 0 0 0 0 0 0 0 0 0 0 0 0 0 0 0 0 0 0 0 0 0 0 0 0 0 0 0 0 0 0 0 0 0 0 0 0 0 0 0 0 0 0 0 0 0 0 0 0 0 0 0 0 0 0 0 0 0 0 0 0 0 0 0 0 0 0 0 0 0 0 0 0 0 0 0 0 0 0 0 0 0 0 0 0 0 0 0 0 0 0 0 0 0 0 0 0 0 0 0 0 0 0 0 0 0 0 0 0 0 0 0 0 0 0 0 0 0 0 0 0 0 0 0 0 0 0 0 0 0 0 0 0 0 0 0 0 0 2 0 0 2 0 0 2 0 0 2 0 0 2 0 0 2 0 0 2 0 0 0 2 0 0 2 0 0 2 0 0 0 2 0 0 2 0 0 2 0 0 2 0 0 2 0 0 2 0 0 2 0 0 2 0 0 2 0 0 2 0 0 2 0 0 0 0 3 0 0 3 0 0 3 0 0 3 0 0 3 0 0 3 0 0 3 0 0 3 0 0 3 0 0 0 3 0 0 3 0 0 3 0 0 3 0 0 3 0 0 3 0 0 0 3 0 0 3 0 0 3 0 0 3 0 0 3 0 0 3 0 0 0 0 2 0 0 2 0 0 2 0 0 2 0 0 2 0 0 2 0 0 2 0 0 2 0 0 2 0 0 2 0 0 2 0 0 2 0 0 2 0 0 2 0 0 0 2 0 0 2 0 0 2 0 0 2 0 0 2 0 0 2 0 0 2 0 0 0 0 1 0 0 1 0 0 1 0 0 1 0 0 1 0 0 1 0 0 1 0 0 1 0 0 1 0 0 1 0 0 1 0 0 1 0 0 1 0 0 1 0 0 1 0 0 1 0 0 1 0 0 1 0 0 1 0 0 1 0 0 1 0 0 0 0 0 0 0 0 0 0 0 0 0 0 0 0 0 0 0 0 0 0 0 0 0 0 0 0 0 0 0 0 0 0 0 0 0 0 0 0 0 0 0 0 0 0 0 0 0 0 0 0 0 0 0 0 0 0 0 0 0 0 0 0 0 0 0 0 0 0 0 0 0 0 0 0 0 0 0 0 0 0 0 0 0 0 0 0 0 0 0 0 0 0 0 0 0 0 0 0 0 0 0 0 0 0 0 0 0 0 0 0 0 0 0 0 0 0 0 0 0 0 0 0 0 0 0 0 0 0 0 0 0 0 0 0 0 0 0 0 0 0 0 0 0 0 0 0 0 0 0 0 0 0 0 0 0 0 0 0 0 0 0 0 0 0 0 0 0 0 0 0 0 0 0 0 0 0 0 0 0 0 0 0 0 0 0 0 0 0 0 0 0 0 0 0 0 0 0 0 0 0 0 0 0 0 0 0 0 0 0 0 0 0 0 0 0 0 0 0 0 0 0 0 0 0 0 0 0 0 0 0 0 0 0 0 0 0 0 0 0 0 0 0 0 0 0 0 0 0 0 0 0 0 0 0 0 0 0 0 0 0 0 0 0 0 0 0 0 0 0 0 0 0 0 0 0 0 0 0 0 0 0 0 0 0 0 0 0 0 0 0 0 0 0 0 0 0 0 0 0 0 0 0 0 0 0 0 0 0 0 0 0 0 0 0 0 0 0 0 0 0 0 0 0 0 0 0 0 0 0 0 0 0 0 0 0 0 0 0 0 0 0 0 0 0 0 0 0 0 0 0 0 0 0 0 0 0 0 0 0 0 0 0 0 0 0 0 0 0 0 0 0 0 0 0 0 0 0 0 0 0 0 0 0 0 0 0 0 0 0 0 0 0 0 0 0 0 0 0 0 0 0 0 0 0 0 0 0 0 0 0 0 0 0 0 0 0 0 0 0 0 0 0 0 0 0 0 0 0 0 0 0 0 0 0 0 0 0 0 0 0 0 0 0 0 0 0 0 0 0 0 0 0 0 0 0 0 0 0 0 0 0 0 0 0 0 0 0 0 0 0 0 0 0 0 0 0 0 0 0 0 0 0 0 0 0 0 0 0 0 0 0 0 0 0 0 0 0 0 0 0 0 0 0 0 0 0 0 0 0 0 0 0 0 0 0 0 0 0 0 0 0 0 0 0 0 0 0 0 0 0 0 0 0 0 0 0 0 0 0 0 0 0 0 0 0 0 0 0 0 0 0 0 0 0 0 0 0 0 0 0 0 0 0 0 0 0 0 0 0 0 0 0 0 0 0 0 0 0 0 0 0 0 0 0 0 0 0 0 0 0 0 0 0 0 0 0 0 0 0 0 0 0 0 0 0 0 0 0 0 0 0 0 0 0 0 0 0 0 0 0 0 0 0 0 0 0 0 0 0 0 0 0 0 0 0 0 0 0 0 0 0 0 0 0 0 0 0 0 0 0 0 0 0 0 0 0 0 0 0 0 0 0 0 0 0 0 0 0 0 0 0 0 0 0 0 0 0 0 0 0 0 0 0 0 0 0 0 0 0 0 0 0 0 0 0 0 0 0 0 0 0 0 0 0 0 0 0 0 0 0 0 0 0 0 0 0 0 0 0 0 0 0 0 0 0 0 0 0 0 0 0 0 0 0 0 0 0 0 0 0 0 0 0 0 0 0 0 0 0 0 0 0 0 0 0 0 0 0 0 0 0 0 0 0 0 0 0 0 0 0 0 0 0 0 0 0 0 0 0 0 0 0 0 0 0 0 0 0 0 0 0 0 0 0 0 0 0 0 0 0 0 0 0 0 0 0 0 0 0 0 0 0 0 0 0 0 0 0 0 0 0 0 0 0 0 0 0 0 0 0 0 0 0 0 0 0 0 0 0 0 0 0 0 0 0 0 0 0 0 0 0 0 0 0 0 0 0 0 0 0 0 0 0 0 0 0 0 0 0 0 0 0 0 0 0 0 0 0 0 0 0 0 0 0 0 0 0 0 0 0 0 0 0 0 0 0 0 0 0 0 0 0 0 0 0 0 0 0 0 0 0 0 0 0 0 0 0 0 0 0 0 0 0 0 0 0 0 0 0 0 0 0 0 0 0 0 0 0 0 0 0 0 0 0 0 0 0 0 0 0 0 0 0 0 0 0 0 0 0 0 0 0 0 0 0 0 0 0 0 0 0 0 0 0 0 0 0 0 0 0 0 0 0 0 0 0 0 0 0 0 0 0 0 0 0 0 0 0 0 0 0 0 0 0 0 0 0 0 0 0 0 0 0 0 0 0 0 0 0 0 0 0 0 0 0 0 0 0 0 0 0 0 0 0 0 0 0 0 0 0 0 0 0 0 0 0 0 0 0 0 0 0 0 0 0 0 0 0 0 0 0 0 0 0 0 0 0 0 0 0 0 0 0 0 0 0 0 0 0 0 0 0 0 0 0 0 0 0 0 0 0 0 0 0 0 0 0 0 0 0 0 0 0 0 0 0 0 0 0 0 0 0 0 0 0 0 0 0 0 0 0 0 0 0 0 0 0 0 0 0 0 0 0 0 0 0 0 0 0 0 0 0 0 0 0 0 0 0 0 0 0 0 0 0 0 0 0 0 0 0 0 0 0 0 0 0 0 0 0 0 0 0 0 0 0 0 0 0 0 0 0 0 0 0 0 0 0 0 0 0 0 0 0 0 0 0 0 0 0 0 0 0 0 0 0 0 0 0 0 0 0 0 0 0 0 0 0 0 0 0 0 0 0 0 0 0 0 0 0 0 0 0 0 0 0 0 0 0 0 0 0 0 0 0 0 0 0 0 0 0 0 0 0 0 0 0 0 0 0 0 0 0 0 0 0 0 0 0 0 0 0 0 0 0 0 0 0 0 0 0 0 0 0 0 0 0 0 0 0 0 0 0 0 0 0 0 0 0 0 0 0 0 0 0 0 0 0 0 0 0 0 0 0 0 0 0 0 0 0 0 0 0 0 0 0 0 0 0 0 0 0 0 0 0 0 0 0 0 0 0 0 0 0 0 0 0 0 0 0 0 0 0 0 0 0 0 0 0 0 0 0 0 0 0 0 0 0 0 0 0 0 0 0 0 0 0 0 0 0 0 0 0 0 0 0 0 0 0 0 0 0 0 0 0 0 0 0 0 0 0 0 0 0 0 0 0 0 0 0 0 0 0 0 0 0 0 0 0 0 0 0 0 0 0 0 0 0 0 0 0 0 0 0 0 0 0 0 0 0 0 0 0 0 0 0 0 0 0 0 0 0 0 0 0 0 0 0 0 0 0 0 0 0 0 0 0 0 0 0 0 0 0 0 0 0 0 0 0 0 0 0 0 0 0 0 0 0 0 0 0 0 0 0 0 0 0 0 0 0 0 0 0 0 0 0 0 0 0 0 0 0 0 0 0 0 0 0 0 0 0 0 0 0 0 0 0 0 0 0 0 0 0 0 0 0 0 0 0 0 0 0 0 0 0 0 0 0 0 0 0 0 0 0 0 0 0 0 0 0 0 0 0 0 0 0 0 0 0 0 0 0 0 0 0 0 0 0 0 0 0 0 0 0 0 0 0 0 0 0 0 0 0 0 0 0 0 0 0 0 0 0 0 0 0 0 0 0 0 0 0 0 0 0 0 0 0 0 0 0 0 0 0 0 0 0 0 0 0 0 0 0 0 0 0 0 0 0 0 0 0 0 0 0 0 0 0 0 0 0 0 0 0 0 0 0 0 0 0 0 0 0 0 0 0 0 0 0 0 0 0 0 0 0 0 0 0 0 0 0 0 0 0 0 0 0 0 0 0 0 0 0 0 0 0 0 0 0 0 0 0 0 0 0 0 0 0 0 0 0 0 0 0 0 0 0 0 0 0 0 0 0 0 0 0 0 0 0 0 0 0 0 0 0 0 0 0 0 0 0 0 0 0 0 0 0 0 0 0 0 0 0 0 0 0 0 0 0 0 0 0 0 0 0 0 0 0 0 0 0 0 0 0 0 0 0 0 0 0 0 0 0 0 0 0 0 0 0 0 0 0 0 0 0 0 0 0 0 0 0 0 0 0 0 0 0 0 0 0 0 0 0 0 0 0 0 0 0 0 0 0 0 0 0 0 0 0 0 0 0 0 0 0 0 0 0 0 0 0 0 0 0 0 0 0 0 0 0 0 0 0 0 0 0 0 0 0 0 0 0 0 0 0 0 0 0 0 0 0 0 0 0 0 0 0 0 0 0 0 0 0 0 0 0 0 0 0 0 0 0 0 0 0 0 0 0 0 0 0 0 0 0 0 0 0 0 0 0 0 0 0 0 0 0 0 0 0 0 0 0 0 0 0 0 0 0 0 0 0 0 0 0 0 0 0 0 0 0 0 0 0 0 0 0 0 0 0 0 0 0 0 0 0 0 0 0 0 0 0 0 0 0 0 0 0 0 0 0 0 0 0 0 0 0 0 0 0 0 0 0 0 0 0 0 0 0 0 0 0 0 0 0 0 0 0 0 0 0 0 0 0 0 0 0 0 0 0 0 0 0 0 0 0 0 0 0 0 0 0 0 0 0 0 0 0 0 0 0 0 0 0 0 0 0 0 0 0 0 0 0 0 0 0 0 0 0 0 0 0 0 0 0 0 0 0 0 0 0 0 0 0 0 0 0 0 0 0 0 0 0 0 0 0 0 0 0 0 0 0 0 0 0 0 0 0 0 0 0 0 0 0 0 0 0 0 0 0 0 0 0 0 0 0 0 0 0 0 0 0 0 0 0 0 0 0 0 0 0 0 0 0 0 0 0 0 0 0 0 0 0 0 0 0 0 0 0 0 0 0 0 0 0 0 0 0 0 0 0 0 0 0 0 0 0 0 0 0 0 0 0 0 0 0 0 0 0 0 0 0 0 0 0 0 0 0 0 0 0 0 0 0 0 0 0 0 0 0 0 0 0 0 0 0 0 0 0 0 0 0 0 0 0 0 0 0 0 0 0 0 0 0 0 0 0 0 0 0 0 0 0 0 0 0 0 0 0 0 0 0 0 0 0 0 0 0 0 0 0 0 0 0 0 0 0 0 0 0 0 0 0 0 0 0 0 0 0 0 0 0 0 0 0 0 0 0 0 0 0 0 0 0 0 0 0 0 0 0 0 0 0 0 0 0 0 0 0 0 0 0 0 0 0 0 0 0 0 0 0 0 0 0 0 0 0 0 0 0 0 0 0 0 0 0 0 0 0 0 0 0 0 0 0 0 0 0 0 0 0 0 0 0 0 0 0 0 0 0 0 0 0 0 0 0 0 0 0 0 0 0 0 0 0 0 0 0 0 0 0 0 0 0 0 0 0 0 0 0 0 0 0 0 0 0 0 0 0 0 0 0 0 0 0 0 0 0 0 0 0 0 0 0 0 0 0 0 0 0 0 0 0 0 0 0 0 0 0 0 0 0 0 0 0 0 0 0 0 0 0 0 0 0 0 0 0 0 0 0 0 0 0 0 0 0 0 0 0 0 0 0 0 0 0 0 0 0 0 0 0 0 0 0 0 0 0 0 0 0 0 0 0 0 0 0 0 0 0 0 0 0 0 0 0 0 0 0 0 0 0 0 0 0 0 0 0 0 0 0 0 0 0 0 0 0 0 0 0 0 0 0 0 0 0 0 0 0 0 0 0 0 0 0 0 0 0 0 0 0 0 0 0 0 0 0 0 0 0 0 0 0 0 0 0 0 0 0 0 0 0 0 0 0 0 0 0 0 0 0 0 0 0 0 0 0 0 0 0 0 0 0 0 0 0 0 0 0 0 0 0 0 0 0 0 0 0 0 0 0 0 0 0 0 0 0 0 0 0 0 0 0 0 0 0 0 0 0 0 0 0 0 0 0 0 0 0 0 0 0 0 0 0 0 0 0 0 0 0 0 0 0 0 0 0 0 0 0 0 0 0 0 0 0 0 0 0 0 0 0 0 0 0 0 0 0 0 0 0 0 0 0 0 0 0 0 0 0 0 0 0 0 0 0 0 0 0 0 0 0 0 0 0 0 0 0 0 0 0 0 0 0 0 0 0 0 0 0 0 0 0 0 0 0 0 0 0 0 0 0 0 0 0 0 0 0 0 0 0 0 0 0 0 0 0 0 0 0 0 0 0 0 0 0 0 0 0 0 0 0 0 0 0 0 0 0 0 0 0 0 0 0 0 0 0 0 0 0 0 0 0 0 0 0 0 0 0 0 0 0 0 0 0 0 0 0 0 0 0 0 0 0 0 0 0 0 0 0 0 0 0 0 0 0 0 0 0 0 0 0 0 0 0 0 0 0 0 0 0 0 0 0 0 0 0 0 0 0 0 0 0 0 0 0 0 0 0 0 0 0 0 0 0 0 0 0 0 0 0 0 0 0 0 0 0 0 0 0 0 0 0 0 0 0 0 0 0 0 0 0 0 0 0 0 0 0 0 0 0 0 0 0 0 0 0 0 0 0 0 0 0 0 0 0 0 0 0 0 0 0 0 0 0 0 0 0 0 0 0 0 0 0 0 0 0 0 0 0 0 0 0 0 0 0 0 0 0 0 0 0 0 0 0 0 0 0 0 0 0 0 0 0 0 0 0 0 0 0 0 0 0 0 0 0 0 0 0 0 0 0 0 0 0 0 0 0 0 0 0 0 0 0 0 0 0 0 0 0 0 0 0 0 0 0 0 0 0 0 0 0 0 0 0 0 0 0 0 0 0 0 0 0 0 0 0 0 0 0 0 0 0 0 0 0 0 0 0 0 0 0 0 0 0 0 0 0 0 0 0 0 0 0 0 0 0 0 0 0 0 0 0 0 0 0 0 0 0 0 0 0 0 0 0 0 0 0 0 0 0 0 0 0 0 0 0 0 0 0 0 0 0 0 0 0 0 0 0 0 0 0 0 0 0 0 0 0 0 0 0 0 0 0 0 0 0 0 0 0 0 0 0 0 0 0 0 0 0 0 0 0 0 0 0 0 0 0 0 0 0 0 0 0 0 0 0 0 0 0 0 0 0 0 0 0 0 0 0 0 0 0 0 0 0 0 0 0 0 0 0 0 0 0 0 0 0 0 0 0 0 0 0 0 0 0 0 0 0 0 0 0 0 0 0 0 0 0 0 0 0 0 0 0 0 0 0 0 0 0 0 0 0 0 0 0 0 0 0 0 0 0 0 0 0 0 0 0 0 0 0 0 0 0 0 0 0 0 0 0 0 0 0 0 0 0 0 0 0 0 0 0 0 0 0 0 0 0 0 0 0 0 0 0 0 0 0 0 0 0 0 0 0 0 0 0 0 0 0 0 0 0 0 0 0 0 0 0 0 0 0 0 0 0 0 0 0 0 0 0 0 0 0 0 0 0 0 0 0 0 0 0 0 0 0 0 0 0 0 0 0 0 0 0 0 0 0 0 0 0 0 0 0 0 0 0 0 0 0 0 0 0 0 0 0 0 0 0 0 0 0 0 0 0 0 0 0 0 0 0 0 0 0 0 0 0 0 0 0 0 0 0 0 0 0 0 0 0 0 0 0 0 0 0 0 0 0 0 0 0 0 0 0 0 0 0 0 0 0 0 0 0 0 0 0 0 0 0 0 0 0 0 0 0 0 0 0 0 0 0 0 0 0 0 0 0 0 0 0 0 0 0 0 0 0 0 0 0 0 0 0 0 0 0 0 0 0 0 0 0 0 0 0 0 0 0 0 0 0 0 0 0 0 0 0 0 0 0 0 0 0 0 0 0 0 0 0 0 0 0 0 0 0 0 0 0 0 0 0 0 0 0 0 0 0 0 0 0 0 0 0 0 0 0 0 0 0 0 0 0 0 0 0 0 0 0 0 0 0 0 0 0 0 0 0 0 0 0 0 0 0 0 0 0 0 0 0 0 0 0 0 0 0 0 0 0 0 0 0 0 0 0 0 0 0 0 0 0 0 0 0 0 0 0 0 0 0 0 0 0 0 0 0 0 0 0 0 0 0 0 0 0 0 0 0 0 0 0 0 0 0 0 0 0 0 0 0 0 0 0 0 0 0 0 0 0 0 0 0 0 0 0 0 0 0 0 0 0 0 0 0 0 0 0 0 0 0 0 0 0 0 0 0 0 0 0 0 0 0 0 0 0 0 0 0 0 0 0 0 0 0 0 0 0 0 0 0 0 0 0 0 0 0 0 0 0 0 0 0 0 0 0 0 0 0 0 0 0 0 0 0 0 0 0 0 0 0 0 0 0 0 0 0 0 0 0 0 0 0 0 0 0 0 0 0 0 0 0 0 0 0 0 0 0 0 0 0 0 0 0 0 0 0 0 0 0 0 0 0 0 0 0 0 0 0 0 0 0 0 0 0 0 0 0 0 0 0 0 0 0 0 0 0 0 0 0 0 0 0 0 0 0 0 0 0 0 0 0 0 0 0 0 0 0 0 0 0 0 0 0 0 0 0 0 0 0 0 0 0 0 0 0 0 0 0 0 0 0 0 0 0 0 0 0 0 0 0 0 0 0 0 0 0 0 0 0 0 0 0 0 0 0 0 0 0 0 0 0 0 0 0 0 0 0 0 0 0 0 0 0 0 0 0 0 0 0 0 0 0 0 0 0 0 0 0 0 0 0 0 0 0 0 0 0 0 0 0 0 0 0 0 0 0 0 0 0 0 0 0 0 0 0 0 0 0 0 0 0 0 0 0 0 0 0 0 0 0 0 0 0 0 0 0 0 0 0 0 0 0 0 0 0 0 0 0 0 0 0 0 0 0 0 0 0 0 0 0 0 0 0 0 0 0 0 0 0 0 0 0 0 0 0 0 0 0 0 0 0 0 0 0 0 0 0 0 0 0 0 0 0 0 0 0 0 0 0 0 0 0 0 0 0 0 0 0 0 0 0 0 0 0 0 0 0 0 0 0 0 0 0 0 0 0 0 0 0 0 0 0 0 0 0 0 0 0 0 0 0 0 0 0 0 0 0 0 0 0 0 0 0 0 0 0 0 0 0 0 0 0 0 0 0 0 0 0 0 0 0 0 0 0 0 0 0 0 0 0 0 0 0 0 0 0 0 0 0 0 0 0 0 0 0 0 0 0 0 0 0 0 0 0 0 0 0 0 0 0 0 0 0 0 0 0 0 0 0 0 0 0 0 0 0 0 0 0 0 0 0 0 0 0 0 0 0 0 0 0 0 0 0 0 0 0 0 0 0 0 0 0 0 0 0 0 0 0 0 0 0 0 0 0 0 0 0 0 0 0 0 0 0 0 0 0 0 0 0 0 0 0 0 0 0 0 0 0 0 0 0 0 0 0 0 0 0 0 0 0 0 0 0 0 0 0 0 0 0 0 0 0 0 0 0 0 0 0 0 0 0 0 0 0 0 0 0 0 0 0 0 0 0 0 0 0 0 0 0 0 0 0 0 0 0 0 0 0 0 0 0 0 0 0 0 0 0 0 0 0 0 0 0 0 0 0 0 0 0 0 0 0 0 0 0 0 0 0 0 0 0 0 0 0 0 0 0 0 0 0 0 0 0 0 0 0 0 0 0 0 0 0 0 0 0 0 0 0 0 0 0 0 0 0 0 0 0 0 0 0 0 0 0 0 0 0 0 0 0 0 0 0 0 0 0 0 0 0 0 0 0 0 0 0 0 0 0 0 0 0 0 0 0 0 0 0 0 0 0 0 0 0 0 0 0 0 0 0 0 0 0 0 0 0 0 0 0 0 0 0 0 0 0 0 0 0 0 0 0 0 0 0 0 0 0 0 0 0 0 0 0 0 0 0 0 0 0 0 0 0 0 0 0 0 0 0 0 0 0 0 0 0 0 0 0 </DataArray>
</CellData>
</Piece>
</UnstructuredGrid>
</VTKFile>